% Model:              ellipsoidsi3n4.mph
% Version:            COMSOL 4.4.0.150
% Date:               Jun 7 2015, 12:29
% Dimension:          3
% Nodes:              1253
% Expressions:        1
% Description:        Temperature
% Length unit:        m
% x                       y                        z                        T (K)
-1.7473457225001582E-6    -7.203352211024027E-7    0                        300
-1.6506564136445898E-6    -8.972418523688562E-7    2.882452192236723E-7     300
-1.5723541723270246E-6    -1.0487146196864296E-6   0                        300
-1.4285192596316524E-6    -7.470226896793629E-7    0                        302.98542448705797
-7.20304391049641E-7      -1.7473584584239007E-6   0                        300
-8.860636039776467E-7     -1.6584795343493312E-6   2.672384155526984E-7     300
-5.596073615693926E-7     -1.7963171776070122E-6   2.511593691069215E-7     300
-6.535604280479255E-7     -1.5396868060228824E-6   2.5537809214681343E-7    302.12027612892575
-7.109938368469778E-7     -1.712269914889221E-6    5.13858175920664E-7      300
-1.3364192697063867E-6    -1.336444363060968E-6    0                        300
-1.4531104995599203E-6    -1.1897912728181533E-6   2.968746238080522E-7     300
-1.1842188517063182E-6    -1.457918942821945E-6    2.9432670988486524E-7    300
-1.1638822637062213E-6    -1.1294387989577792E-6   3.3107654528186465E-7    302.60117302462623
-1.5293635685689759E-6    -1.0316403659266714E-6   5.753050076509991E-7     300
-1.6671531899256948E-6    -7.943131351243644E-7    5.630835586228651E-7     300
-1.325039172615958E-6     -8.977124126951429E-7    3.049227733774663E-7     302.8896567093768
-1.203237054034625E-6     -9.437549243443415E-7    0                        304.0403913238673
-1.0164492401787075E-6    -1.2561273538894963E-6   0                        302.9337291346265
-1.0486850963864517E-6    -1.5723738631112283E-6   0                        300
-1.1701373259015639E-6    -5.653049935929876E-7    0                        307.5836741791782
-1.1441256633574058E-6    -7.362385226146352E-7    1.7348992640059515E-7    306.39827148545095
-9.006796690757211E-7     -1.3251690585210174E-6   2.3366736001905478E-7    302.962414479606
-1.0152136216326023E-6    -1.5403542251807286E-6   5.751089638513774E-7     300
-7.684697124999705E-7     -1.4047460682740674E-6   4.3707312923966056E-7    302.64071018860096
-9.325917456971715E-7     -6.896811333803031E-7    0                        310.32157080006976
-7.437022798244712E-7     -1.3703708076975112E-6   0                        303.6412281565791
-7.641606042055862E-7     -9.825565649720833E-7    0                        308.5740100585613
-4.940348599858407E-7     -1.5413975306727183E-6   0                        302.8902441847111
-3.640825535338048E-7     -1.854600736525906E-6    0                        300
-1.4028715378683874E-6    -6.301733684599485E-7    3.1113473499226953E-7    303.64239644242565
-1.7940576353806323E-6    -5.469883223842506E-7    3.261157971811984E-7     300
-1.3036408451860793E-6    -1.3003092893827301E-6   5.969589143875057E-7     300
-1.2928426818713537E-6    -8.693980154807445E-7    6.043520096009549E-7     302.71662378015293
-1.5960300989340473E-6    -8.269464351150568E-7    8.174699583619354E-7     300
-1.3819122393660892E-6    -1.1221844788656281E-6   8.888848597221305E-7     300
-4.876739827833473E-7     -1.528165182655551E-6    4.851965130948679E-7     302.50564237919934
-9.923947509633702E-7     -1.2110006932672323E-6   5.719914017087874E-7     302.71973836288004
-8.321987291735416E-7     -1.5892048569615963E-6   8.329390539723576E-7     300
-6.725394042178412E-7     -1.406007476689509E-6    6.403274726106226E-7     302.6033814011062
-1.1222960477473422E-6    -1.3825871071627792E-6   8.865487949025647E-7     300
-9.076091971930338E-7     -1.4438420209712647E-6   1.1405195731553792E-6    300
-8.358871867179744E-7     -1.2853810762993728E-6   8.713250871780492E-7     302.1235725870156
-1.8545977623710226E-6    -3.6409766485667E-7      0                        300
-1.8690187291446195E-6    -2.2460545364546496E-7   2.3602098505581703E-7    300
-1.5877545878445342E-6    -2.9709514107340603E-7   2.755376832543184E-7     302.7576112136066
-1.8328064555983386E-6    -2.5675191926781593E-7   5.367661861629526E-7     300
-1.493912604187557E-6     -3.8674773781419633E-7   0                        303.85616451771233
-1.8900000000000001E-6    0                        0                        300
-1.643415160941288E-6     -1.3310488120219576E-7   0                        302.54015677881813
-1.223180025236359E-6     -4.382060923007098E-7    3.112913297525054E-7     307.08700116006827
-1.7343958635845847E-6    -5.661487816463789E-7    6.90764235484994E-7      300
-1.4791627204798889E-6    -5.460750355033416E-7    7.031919882877646E-7     302.2389454335699
-1.5080954284121456E-6    -4.044113416659807E-7    4.968872436021021E-7     302.9634976518619
-8.751975566063332E-7     -4.5487614686376E-7      0                        314.72139539490684
-1.031149737453935E-6     -5.146289608841595E-7    2.2989674958839355E-7    310.0883206100926
-1.8726046996415202E-6    0                        3.581692559364781E-7     300
-1.621223087922384E-6     6.5514044677139E-8       2.9654129902734326E-7    302.64558486128857
-1.8690473945921971E-6    2.2445227282866087E-7    2.3586162769880324E-7    300
-1.8329750597733954E-6    2.569117985851444E-7     5.354862889683282E-7     300
-1.1354263763025127E-6    -2.635579869645511E-7    0                        310.2053158439617
-1.5685409014436838E-6    1.6487224756568028E-7    0                        303.4196877370734
-1.8546008206318597E-6    3.640821251060374E-7     0                        300
-1.3311928812082788E-6    -5.109007543501169E-8    0                        307.0189557583281
-1.6407256077153372E-6    3.3363799176483807E-7    3.191219991752046E-7     302.0305283800873
-1.794102808934405E-6     5.467592485322481E-7     3.2638151423071703E-7    300
-1.573312928882074E-6     4.893877656903743E-7     0                        302.5557495782792
-1.7473587939741623E-6    7.203035770506203E-7     0                        300
-5.691039028608007E-7     -1.7107064059971537E-6   7.940658076309893E-7     300
-3.6224587502532435E-7    -1.5761520249150127E-6   2.5816233170448425E-7    302.7518486075068
-3.233381482086415E-7     -1.8220598628487545E-6   5.37954072661248E-7      300
-2.513306614602676E-7     -1.8662231164533833E-6   2.26368260409747E-7      300
0                         -1.8900000000000001E-6   0                        300
-1.6498085798789328E-7    -1.5597052683987985E-6   0                        303.5157649984109
1.3214961960392255E-7     -1.6331681254882003E-6   0                        302.6614617549572
3.640972364767143E-7      -1.8545978464714103E-6   0                        300
2.2467299092327844E-7     -1.8690102923039665E-6   2.3602594316389543E-7    300
0                         -1.8726046996415202E-6   3.581692559364781E-7     300
-1.9981840593749052E-7    -1.5933476524423535E-6   6.368973127362805E-7     302.123199688608
-3.1288357794359225E-7    -1.7497309285038164E-6   8.993248952415138E-7     300
0                         -1.8201118649604703E-6   7.128912668786695E-7     300
-5.659564404419512E-7     -1.2956457267233375E-6   3.4389817544281305E-7    305.22391605200215
-9.6627141324925E-7       -9.474659616533182E-7    2.4096897862324654E-7    306.38673343475944
-8.756105168321475E-7     -6.846432016009665E-7    2.196096026029195E-7     311.0221562059515
-7.158742030835939E-7     -1.0725318355172581E-6   2.7584547555733447E-7    307.3497889795735
-6.083987225916905E-7     -1.4992149535090148E-6   1.3676398701217267E-6    300
-5.797244787078051E-7     -1.6309783765324621E-6   1.062459865396418E-6     300
-5.067823722578712E-7     -1.388158771596352E-6    1.1681845846971688E-6    301.5299628323983
-6.078106313087681E-7     -1.3990405314382466E-6   9.1508934173324E-7       302.0463031624224
-6.772770805544141E-7     -8.062759208229319E-7    2.193123387300764E-7     312.3925653578611
-4.803771193773729E-7     -8.213617692066677E-7    0                        315.74354652319386
-6.727942232963105E-7     -6.248039742514637E-7    0                        316.7874497949725
-3.7353217750328865E-7    -1.1665996963677738E-6   0                        308.9432343977514
-2.2519814284469182E-7    -1.365171038246414E-6    3.332630960102328E-7     305.67982845850224
-3.189973505450691E-7     -1.6420069332049857E-6   1.231804240306831E-6     300
-1.7581200265216984E-6    -3.005490220665633E-7    8.751783504230562E-7     300
-1.6367058494412466E-6    -5.992978665119149E-7    1.0231845473882936E-6    300
-1.1627789591368794E-6    -9.29449335438379E-7     8.368380021268125E-7     302.6732240326252
-1.2816480456994498E-6    -6.730937815896176E-7    9.270281276020522E-7     302.7153829213478
-1.456072796236036E-6     -8.93089131765821E-7     1.1324812921081558E-6    300
-1.5104437290950594E-6    -6.085889904688669E-7    1.3430365581615024E-6    300
-1.1917398545400787E-6    -1.1702040338540072E-6   1.2384095166684971E-6    300
-1.0694777308254141E-6    -9.024814555920838E-7    1.1271735661538576E-6    302.296508658166
-1.3125657297499916E-6    -8.880716339522222E-7    1.4417960871733527E-6    300
-7.940683214932389E-7     -1.2152360037581657E-6   1.1809201273982112E-6    301.67700330736056
-9.01837166496457E-7      -1.2998129950728544E-6   1.4476811699445905E-6    300
-5.287800373536776E-7     -1.2496552953332528E-6   1.3911387605670893E-6    301.5012722909468
-6.257875196786135E-7     -1.3240755617980064E-6   1.6725833965016553E-6    300
-3.2441567659322204E-7    -1.4942207404857428E-6   1.555297830341922E-6     300
-2.9099010521700163E-7    -1.3449286390964472E-6   1.357395847896905E-6     301.51226748350206
-1.3875078929494033E-6    -3.9828437616002404E-7   8.943239535474067E-7     302.884944925565
-1.5539590397574364E-6    -2.3892277046901354E-7   6.817448675724746E-7     302.3473945832308
-1.5854538465167597E-6    -9.790371124243852E-8    7.215623949577614E-7     302.07088854383034
-1.8201118649604703E-6    0                        7.128912668786695E-7     300
-1.5116261960196137E-6    -7.775911414231587E-8    4.994555862114816E-7     303.50760552605345
-1.2888210422879623E-6    -1.5568775827689325E-7   3.0490290371723974E-7    307.1246474699007
-5.464014304860791E-7     -3.1360082374298477E-7   0                        329.9327626078421
-8.485558288361246E-7     -1.9911770774701772E-7   0                        318.43456826322887
-7.773521416867226E-7     -3.429944053342134E-7    1.9167563057264757E-7    318.6057057985911
-9.906516137957068E-7     -2.2948211708918364E-7   2.1950774179468586E-7    313.32365154183236
-9.855263406267783E-7     3.3296151355311774E-8    0                        314.74739241027584
-1.6495294318653477E-6    -3.076332144297911E-7    1.217689754916076E-6     300
-1.5173922172379473E-6    6.233386796908171E-8     8.919639357575974E-7     302.1900467947851
-1.7316004504822104E-6    0                        1.0603647398136386E-6    300
-1.435429757420205E-6     -1.828672911646215E-7    9.227254098102536E-7     302.73675011360655
-1.500923417673673E-6     -2.985727286056614E-8    1.1247669311141307E-6    301.51202197677515
-1.3631489048861702E-6    -3.163190148218605E-7    1.2323611163224498E-6    301.8601639391207
-1.5022897973990677E-6    -3.1532436285495894E-7   1.5436839006767977E-6    300
-1.756844302478473E-6     3.0563539339454545E-7    8.767455743719733E-7     300
-1.734497498298297E-6     5.657196522865712E-7     6.90953123367188E-7      300
-1.5403807422139158E-6    1.2307239126190062E-7    6.269688225329588E-7     302.7921859044837
-1.3892754949006224E-6    1.8644852311340826E-7    2.577143439295553E-7     305.6127391835425
-1.5189245146347233E-6    3.967545910089971E-7     7.149849773957613E-7     302.27313174297507
-1.0778111191886474E-6    7.497071504484598E-8     2.0426177591700137E-7    311.8034298290716
-1.160873588253446E-6     3.6857155263059304E-7    0                        309.1185687220474
-1.4626483483494068E-6    5.223637928706534E-7     3.6849274074562937E-7    303.34146596768636
-1.6672526698719076E-6    7.940434412414337E-7     5.632517683273257E-7     300
-1.6508071047144283E-6    8.969307365123411E-7     2.884514995118557E-7     300
-1.3855632926439879E-6    7.281127281366322E-7     0                        303.55983403231846
-1.572374593996245E-6     1.0486840005137996E-6    0                        300
-1.4461310490053173E-6    6.804852690352523E-7     5.856243145367738E-7     302.3364088999114
-3.2809708657618945E-7    -1.4514827416968552E-6   9.602943356724637E-7     302.2109797853918
1.048713523939125E-6      -1.5723549031581675E-6   0                        300
7.36098482149567E-7       -1.4262838097112244E-6   0                        303.0631144465373
7.203344071832787E-7      -1.747346058035031E-6    0                        300
8.970114099562985E-7      -1.6507447078599985E-6   2.88659630301206E-7      300
-5.043120200001354E-8     -1.5489826726689628E-6   3.021591722244841E-7     303.4987473674002
2.5691642012691374E-7     -1.8329683271547938E-6   5.355271112132393E-7     300
2.4535239488412977E-7     -1.6010231923793705E-6   2.676395562602746E-7     302.70670552452907
5.464683513864275E-7      -1.7942223428846065E-6   3.2604832378695167E-7    300
5.528897933743048E-7      -1.5405972362223282E-6   2.3183719172232692E-7    302.5541647845709
4.756210000427428E-8      -1.3288235705226873E-6   0                        307.0354257999033
3.7840401359302264E-7     -1.494271076720134E-6    0                        303.8669322472924
-6.106801188097839E-8     -1.5376246917739306E-6   9.452481001926675E-7     301.8245319425607
0                         -1.7316004504822104E-6   1.0603647398136386E-6    300
1.1025022496848983E-7     -1.5968763406883829E-6   7.590255094317608E-7     301.84112109622953
3.073191681938791E-7      -1.7559438090719578E-6   8.791244995762971E-7     300
1.25568411854527E-7       -1.550719266674683E-6    5.223466964028929E-7     302.9533489200166
-1.4516584468531083E-7    -1.4387884751161686E-6   1.2125716155096554E-6    301.59539671895607
-4.7543740896562475E-7    -9.738511487120965E-7    3.6908207031590444E-7    310.880435407745
-2.3522298504944426E-7    -8.33315415353625E-7     0                        318.6540688937604
-3.1359037733467975E-7    -5.464074259563793E-7    0                        330.0459302817899
-4.1358471582018177E-7    -6.927085101876101E-7    2.482215363959108E-7     319.8019540884791
-4.523797026631021E-7     -4.045331757571834E-7    2.3678430709675976E-7    329.6463654472122
1.070076591288816E-8      -1.2040656695421554E-6   2.8170812340885393E-7    308.8349508567564
-1.4932162716062303E-7    -9.7138081395425E-7      2.941114429912383E-7     313.74226845168323
7.721138475673657E-9      -1.0108706390068962E-6   0                        313.9579566427859
2.39679741599178E-7       -1.1563972646599143E-6   0                        309.83544724470016
-2.1304290247498066E-7    -5.75346203291886E-7     2.0039799750194456E-7    330.29387014959406
-5.711598260360745E-8     -7.610240226675174E-7    1.8739360637371805E-7    321.9387728948516
0                         -6.3E-7                  0                        330.27080823671196
1.3364431228749871E-6     -1.3364205099145048E-6   0                        300
9.152840868570401E-7      -1.2178192068476807E-6   0                        304.1112859552908
1.1889305413326645E-6     -1.4535368015112061E-6   2.9953108636069813E-7    300
0                         -1.6055470030912518E-6   1.3960175536333129E-6    300
-3.447118100206631E-8     -1.3212692833222497E-6   1.4318822285714922E-6    301.55172095434796
-1.1962252133095282E-6    -5.157053740464953E-7    1.088933616394921E-6     303.28569150549987
-5.717325086891333E-7     -2.1404784652626587E-7   2.1781344654262344E-7    329.91468368732706
-7.19883137742222E-7      -5.020101032678629E-7    3.769037433078526E-7     316.0950278667813
-8.068007548294933E-7     -2.5418001215410914E-8   1.7388864336714532E-7    320.3747306415077
-8.250529159371432E-7     2.399676159196772E-7     0                        318.9187725411296
-6.3E-7                   0                        0                        330.3043103285158
-1.3410756171559929E-6    -6.16259258122518E-7     1.6528544409783931E-6    300
-1.2132599787668174E-6    -6.466771442075009E-7    1.3274622846558582E-6    301.63944644370355
-1.2352558160661762E-6    -4.453628101334554E-7    1.5109274615146043E-6    301.28596528392706
-9.094301746806969E-7     -9.983377514474234E-7    1.394725636663825E-6     301.5284760334109
-1.1031323329131037E-6    -1.0705697094791378E-6   1.5394141497094913E-6    300
-1.1373529095086372E-6    -8.752473548794561E-7    1.7217555102096093E-6    300
-9.94756931315265E-7      -8.189958524435997E-7    1.5176715240292965E-6    301.3923633419571
-9.033928078762244E-7     -1.1011899197096898E-6   1.7392498104062756E-6    300
-3.337984284777363E-7     -1.2044961645660564E-6   1.577323274807636E-6     301.35892558534675
-6.118535846198245E-7     -1.0743982570030783E-6   1.6727885293982765E-6    301.0513228394994
-6.298274188439914E-7     -1.1165124409692298E-6   1.944346185122691E-6     300
-1.1350917995892774E-6    -6.220676286513063E-7    1.9280894701499358E-6    300
-1.0567737161023721E-6    -6.284322878049176E-7    1.6047812429092465E-6    301.35234641861314
-8.977254709795205E-7     -8.868445785156057E-7    1.9698232199189E-6       300
-8.539395936974847E-7     -7.021209525333E-7       1.8003252792158575E-6    301.12370609669074
-3.2434406493152234E-7    -1.3026173246272025E-6   1.8626257017781488E-6    300
0                         -1.439900438988919E-6    1.7139492358290326E-6    300
1.362494327034628E-7      -1.4205420376437918E-6   1.270082864394965E-6     301.5116074377131
3.081930556916153E-7      -1.6495232121660337E-6   1.217428773021188E-6     300
2.23955317504718E-7       -1.5064243001862392E-6   1.0053716037768808E-6    301.75296623742264
6.054087592448502E-7      -1.633972958614862E-6    1.024693468945818E-6     300
-1.021375786928864E-6     -4.303523740431308E-7    1.8097728379177291E-6    301.0761877994401
-8.705313728892968E-7     -6.434804804410186E-7    2.1689646562840686E-6    300
-6.126205658486933E-7     -7.130460991980793E-7    2.018996910029322E-6     300.85343869044453
-6.122535499193733E-7     -8.882342131970107E-7    2.172611268338201E-6     300
-1.5153122450008453E-6    2.5281402694957395E-7    1.017094483737925E-6     301.6064022101179
-1.6055470030912518E-6    0                        1.3960175536333129E-6    300
-1.6505924785139387E-6    3.0830024304790915E-7    1.2145316145820293E-6    300
-1.277679689409057E-6     -6.304543619839539E-8    1.3805780746217714E-6    302.0398047279669
-1.3013597220631499E-6    2.1198611798555066E-7    1.2097229320054236E-6    302.55807746359284
-1.310732107698121E-6     -3.164480481946147E-7    1.854110641331956E-6     300
-1.2027146820835452E-6    -2.1095482154419787E-7   1.6189205240791474E-6    301.33724646097903
-1.439900438988919E-6     0                        1.7139492358290326E-6    300
-1.635132155281329E-6     6.043457860999469E-7     1.0222962637870755E-6    300
-5.104661745926571E-7     -2.203004625121562E-7    4.148159857030478E-7     328.81260697393526
-7.706705018628407E-7     -2.1405676950521572E-7   4.7581906788280107E-7    317.22346520685284
-4.90976516659363E-7      -5.661477627065066E-7    5.139273078036278E-7     318.1572996867647
-5.876584073068914E-7     0                        3.17888177850246E-7      329.0764413564547
-9.120004147936398E-7     -7.299877766085806E-8    3.776390409490353E-7     315.02121912038905
-1.5965191404573434E-6    8.266268407812777E-7     8.162308573537802E-7     300
-1.3043761979388624E-6    6.246080234384769E-7     7.735287426825924E-7     303.34043112326094
-9.433483143959842E-7     4.121596560082288E-7     2.2650290490045581E-7    312.95296867887214
-8.19705138580485E-7      4.815789116435852E-7     0                        315.7804250069535
-1.1705501518419844E-6    6.156618392831804E-7     4.0627744815727794E-7    306.37911019532913
-5.464024677588232E-7     3.1359901644736445E-7    0                        330.1481249362104
-7.059076731485435E-7     4.172784646671226E-7     1.80766124541248E-7      319.78172718161215
-9.810828473076963E-7     7.544776933512728E-7     0                        308.71195018632477
-6.433575525596178E-7     6.540155442936842E-7     0                        316.7736523592485
-1.3791702743936012E-6    8.895479006964411E-7     3.330889995035384E-7     302.3761602160893
-1.2473008796543162E-6    1.000929665457251E-6     0                        303.13472287369774
-1.529863538705047E-6     1.03088086444688E-6      5.753679732709514E-7     300
-1.336445603340801E-6     1.3364180294021142E-6    0                        300
-1.4540062313599604E-6    1.188500244577341E-6     2.984104115136932E-7     300
-1.1239586017242882E-6    8.720947551391669E-7     2.758327737090831E-7     305.25851645287304
-1.2922628981829468E-6    8.627205301062476E-7     6.038938620285537E-7     302.7584602895265
-1.1427332405029262E-6    1.1545915939813303E-6    2.0682688902109533E-7    302.72514798599786
8.330207375077443E-7      -1.3231148539725068E-6   3.015817678029419E-7     303.337050252594
5.418761522749374E-7      -1.123451504199164E-6    0                        308.5226462150028
1.0305972589421365E-6     -1.5298633888180705E-6   5.763636966130755E-7     300
1.0664896235076457E-6     -1.2861806540633758E-6   5.352433735166254E-7     301.700103332906
5.763613436302312E-7      -1.2862989480286747E-6   2.9726855591312615E-7    305.3980648412663
7.93469487642766E-7       -1.6673789052985094E-6   5.641040385931692E-7     300
5.584777715160081E-7      -1.7357748132348816E-6   6.961933767749993E-7     300
6.636319299453289E-7      -1.4965296431966773E-6   4.606994470232605E-7     302.1988848945376
6.108660000448542E-7      -1.5112435747250629E-6   1.3392414838889838E-6    300
4.3003091357782557E-7     -1.3739024425857066E-6   1.0861137432322747E-6    302.1386237640857
8.349189342701289E-7      -1.403142846978122E-6    6.132126537758943E-7     301.9119890519523
8.260903158499799E-7      -1.5966976558648346E-6   8.166109944132882E-7     300
4.002486277778851E-7      -1.4668895480065803E-6   5.363994617154135E-7     303.31669773060827
2.660317988449811E-7      -1.3330360924547744E-6   2.992531693566535E-7     306.1347070223882
4.3082419591028853E-7     -1.4451029462660059E-6   8.347280474558369E-7     302.48834580501165
6.447212114189492E-7      -1.4347353988401886E-6   7.233471713685917E-7     302.21687504800116
-2.8411433747083775E-7    -4.5497412585310547E-7   4.6258844837880483E-7    328.34179135106814
-2.2755405333486024E-7    -7.408566090036205E-7    4.4261925704562213E-7    318.4226547080926
2.5233643371879605E-7     -1.0462547232446217E-6   2.9057722205071904E-7    311.4697773114968
6.096305901934463E-7      -1.0272792390524723E-6   2.1208945325412515E-7    309.25791906232274
8.210993615010706E-7      -9.282115340620599E-7    0                        308.6957931571561
8.23978733960849E-7       -1.0302723517094283E-6   2.7319490539803267E-7    306.8591431006834
2.852713175140989E-7      -9.129095370583004E-7    0                        315.5015056836556
1.0998407866731313E-7     -8.347919943815651E-7    3.3000627708304996E-7    317.58565307872317
5.372874682289685E-7      -8.468427690219677E-7    0                        314.21376102419123
0                         -5.87658407306872E-7     3.178881778503161E-7     328.3584698287163
2.1404705208670636E-7     -5.717331572967833E-7    2.1781163978829852E-7    330.11005171597424
3.1359901646609786E-7     -5.464024677480715E-7    0                        329.9120809643554
1.0587472167993946E-6     -1.0994078539110354E-6   2.929224304935578E-7     303.8167656740514
1.3400538676602426E-6     -1.0651371015144859E-6   1.9925537361301386E-7    301.7460794828411
1.19848910456551E-6       -1.0029751874298413E-6   0                        303.5986118710945
1.5723726475805206E-6     -1.0486869189223534E-6   0                        300
1.3787365040076111E-6     -7.532758337217524E-7    0                        303.4948596488058
1.4566877397014602E-6     -1.185703449382638E-6    2.9455999709075725E-7    300
1.6574009584279482E-6     -8.875172898763601E-7    2.708742169686389E-7     300
1.747357457051204E-6      -7.203068202363851E-7    0                        300
1.2649520388824091E-6     -1.0825584436273706E-6   4.6102209740102756E-7    301.9083201323872
1.30288634519123E-6       -1.2994645133085357E-6   6.037542002549198E-7     300
4.36249481234537E-7       -1.2796712840419542E-6   1.3896497360556859E-6    301.538310769444
3.1103451028252604E-7     -1.5069075718298201E-6   1.536551568485588E-6     300
-3.9497499084589815E-8    -1.1141273277836488E-6   1.7373634774878237E-6    301.34055951189856
1.6871646617413532E-7     -1.2095729001065955E-6   1.521636090017764E-6     301.74716892887596
1.1192510352765867E-6     -1.381738741149673E-6    8.966288728494496E-7     300
1.1172856370330213E-6     -1.1072580174461179E-6   6.55546783867892E-7      302.4113235361044
6.154177066463246E-7      -1.3424834827336306E-6   1.6512281259928253E-6    300
8.867794794977798E-7      -1.3144163463755645E-6   1.4400494343319693E-6    300
-4.2589258125037595E-7    -3.837210146377668E-7    7.435702187948653E-7     318.093131398786
-3.7158873334183493E-7    -1.8261468877062973E-7   6.647769775265149E-7     325.0506857238293
-8.649515866289325E-7     1.801535902554412E-7     3.464359128883828E-7     316.2018529273157
-5.717331573035166E-7     2.1404705207832576E-7    2.1781163976979864E-7    330.4806936347785
-1.0790315127307977E-6    -3.150261752344854E-7    2.1271476269323657E-6    300
-1.0353303570708634E-6    -1.5558152577588786E-7   1.912592429479512E-6     300.9102278056317
-3.113253769529379E-7     -1.087883875322067E-6    2.1193638101136703E-6    300
-2.9037759428076473E-7    -9.79532394252672E-7     1.7308512176422824E-6    301.76743271479455
-5.710375044372178E-7     -8.59754134475715E-7     1.8505787684859839E-6    301.20358211881285
-6.987390611985818E-7     -5.117624371927925E-7    2.020191420912971E-6     301.05818753538557
-7.81042430186128E-7      -3.165972352659767E-7    2.368375871610529E-6     300
3.163920401608632E-7      -1.311892883923932E-6    1.85251962217513E-6      300
0                         -1.2323526497613572E-6   2.0061599176086848E-6    300
6.689776551155589E-7      -1.2014311408838568E-6   1.2214416753528665E-6    302.07805367547456
8.979757448524532E-7      -1.4522172708610124E-6   1.1346087155246807E-6    300
6.973468943068212E-7      -1.3616785116723926E-6   1.0059296383030495E-6    301.694380430377
8.570793962864495E-7      -1.3071151744154484E-6   8.946818159073775E-7     301.77915857447437
9.155809423355397E-7      -1.170360737341926E-6    1.169081404938423E-6     301.4673736202019
6.41452987582637E-7       -1.1001426969339067E-6   1.5095646591275963E-6    301.5106793777734
-1.726096944414657E-7     -3.211350524182992E-7    7.193032852187702E-7     324.8521124023183
-2.21493195116415E-7      -6.957645215594456E-7    7.63127266245258E-7      314.1333181042302
-7.664771597449188E-7     -2.5641783175702424E-7   1.9690540502803453E-6    301.4300851633859
-2.893081013244483E-7     -7.960704211430774E-7    2.0143436927960966E-6    301.13294922496397
-5.92028256238067E-7      -6.389896158583036E-7    2.34820310805865E-6      300
-2.891369208250721E-7     -8.404661161234987E-7    2.335154906078307E-6     300
-3.5395357271967186E-7    -6.111720978207366E-7    2.2147935079387554E-6    300.7071479692607
-5.250325345391356E-7     -3.868935453880716E-7    2.121364929585312E-6     301.1616523070918
-5.055498770911796E-7     -4.17699394980197E-7     2.4816146382797416E-6    300
-5.561721783576147E-7     -2.1102803444338767E-7   2.511523395537421E-6     300
-6.376815931977786E-7     -1.846315336809906E-7    6.949638373250378E-7     316.98035123631036
-4.554703651052242E-7     0                        6.09356744212349E-7      326.38718115830744
-7.763008718115736E-7     7.986155440868871E-8     6.293166557000137E-7     315.31997535587715
-1.048716442311432E-6     1.5723529566874462E-6    0                        300
-1.1849577377299997E-6    1.457183921557542E-6     2.956294132085732E-7     300
-1.3261051820234773E-6    6.803483425709575E-7     1.1007783876345073E-6    301.67955996380783
-1.382612767351798E-6     4.502459408971288E-7     1.2162144929999778E-6    301.52830951515443
-1.5069583046580377E-6    3.109802159925126E-7     1.536475586410506E-6     300
-1.5115303579853993E-6    6.102641413878721E-7     1.3391449372880904E-6    300
-1.1629230268453207E-6    1.2770822898847932E-7    1.5476784388915563E-6    301.9122053538567
-1.1932335656770986E-6    3.797498527210614E-7     1.421523683036046E-6     302.0225105994457
-1.2323526497613572E-6    0                        2.0061599176086848E-6    300
-1.093281907080414E-6     9.508408825231295E-8     1.8475596021021192E-6    300.97344173990047
-1.3118915063233163E-6    3.1639127049883564E-7    1.8525217919350342E-6    300
-1.3812402946930672E-6    1.1199254633792514E-6    8.964835310201274E-7     300
-1.3008924310823008E-6    1.301275937592507E-6     6.045339041867096E-7     300
-1.192927518625202E-6     1.1097831972559478E-6    7.073867419707384E-7     301.7107835100528
-1.4520430105539377E-6    8.983971734218625E-7     1.1343919446146318E-6    300
-1.3143820078909712E-6    8.868085488684848E-7     1.4400757787606485E-6    300
-1.1736271733185114E-6    8.42391308143295E-7      1.1761148439619628E-6    301.7477650023094
-5.104930701218481E-7     2.2018690505871234E-7    4.148692833996526E-7     328.17268460404773
-3.1359395171291473E-7    5.464053745580535E-7     0                        330.39582938773566